16
Lattice="6.36128533 0.0 0.0 -3.18064267 5.5090341 0.0 0.0 0.0 10.29153421" Properties=species:S:1:pos:R:3:forces:R:3:magmoms:R:1 energy=-30.69383528 stress="0.0002933435202451807 -0.0 -0.0 -0.0 0.0002933434578300895 0.0 -0.0 0.0 0.0012725152293022403" bandgap=0.0 e_per_atom_relaxed=-1.930364705 mp_id=mp-1028232 energy_per_atom=-1.930364705 ef_per_atom_relaxed=-1.930364705 corrected_total_energy=-30.88583528 ef_per_atom=-0.04091981447916647 task_id=mp-1028232 calc_id=0 ionic_step=3 pbc="T T T"
Mg      -1.58885624       4.59170395       1.28644178      -0.00891482      -0.00514698      -0.00000000       0.00000000
Mg      -1.59415331       4.58864572       6.43220888       0.00982931       0.00567495      -0.00000000      -0.00000000
Mg       3.18064584       1.83465479       1.28644178      -0.00000000       0.01029395      -0.00000000       0.00000000
Mg       3.18064581       1.84077130       6.43220888       0.00000000      -0.01134991      -0.00000000      -0.00000000
Mg       1.58886259       4.59170395       1.28644178       0.00891482      -0.00514698      -0.00000000      -0.00000000
Mg       1.59415960       4.58864572       6.43220888      -0.00982931       0.00567495      -0.00000000      -0.00000000
Mg       1.59583825       0.91498716       3.83174752       0.00790409      -0.00456343      -0.04083665      -0.00000000
Mg       1.59583825       0.91498716       9.03267025       0.00790409      -0.00456343       0.04083665      -0.00000000
Mg      -0.00000318       3.67906530       3.83174752      -0.00000000       0.00912685      -0.04083665      -0.00000000
Mg      -0.00000318       3.67906530       9.03267025      -0.00000000       0.00912685       0.04083665      -0.00000000
Mg       4.76544072       0.91498716       3.83174752      -0.00790409      -0.00456343      -0.04083665      -0.00000000
Mg       4.76544072       0.91498716       9.03267025      -0.00790409      -0.00456343       0.04083665      -0.00000000
Mg       3.18063948       3.67269124       3.86234034      -0.00000000      -0.00000000      -0.00219821      -0.00000000
Mg       3.18063948       3.67269124       9.00207743      -0.00000000      -0.00000000       0.00219821      -0.00000000
Al       0.00000318       1.83634286       1.28644178      -0.00000000      -0.00000000      -0.00000000       0.00000000
Sb       0.00000318       1.83634286       6.43220888      -0.00000000      -0.00000000      -0.00000000      -0.00000000
16
Lattice="6.36003812 0.0 0.0 -3.18001906 5.50795399 0.0 0.0 0.0 10.29721622" Properties=species:S:1:pos:R:3:forces:R:3 energy=-30.69129602 stress="-0.002441731054624062 -0.0 0.0 -0.0 -0.0024417305303372954 -0.0 -0.0 0.0 -0.0020452482750396156" e_per_atom_relaxed=-1.930364705 mp_id=mp-1028232 energy_per_atom=-1.93020600125 ef_per_atom_relaxed=-1.930364705 corrected_total_energy=-30.88329602 ef_per_atom=-0.040761110729166536 task_id=mp-1028232 calc_id=0 ionic_step=2 pbc="T T T"
Mg      -1.58869510       4.59071684       1.28715203       0.00324990       0.00187633       0.00000000
Mg      -1.59342885       4.58798384       6.43576014      -0.01072969      -0.00619479       0.00000000
Mg       3.18002227       1.83446875       1.28715203      -0.00000000      -0.00375267      -0.00000000
Mg       3.18002224       1.83993478       6.43576014      -0.00000000       0.01238958      -0.00000000
Mg       1.58870152       4.59071684       1.28715203      -0.00324990       0.00187633       0.00000000
Mg       1.59343521       4.58798384       6.43576014       0.01072969      -0.00619479       0.00000000
Mg       1.59508691       0.91506091       3.83844510       0.01113585      -0.00642928      -0.13039530
Mg       1.59508691       0.91506091       9.03307518       0.01113585      -0.00642928       0.13039530
Mg      -0.00000321       3.67783774       3.83844510       0.00000000       0.01285857      -0.13039530
Mg      -0.00000321       3.67783774       9.03307518       0.00000000       0.01285857       0.13039530
Mg       4.76494479       0.91506091       3.83844510      -0.01113585      -0.00642928      -0.13039530
Mg       4.76494479       0.91506091       9.03307518      -0.01113585      -0.00642928       0.13039530
Mg       3.18001588       3.67197116       3.86357844      -0.00000000      -0.00000000       0.03314160
Mg       3.18001588       3.67197116       9.00794183      -0.00000000      -0.00000000      -0.03314160
Al       0.00000318       1.83598283       1.28715203      -0.00000000      -0.00000000       0.00000000
Sb       0.00000318       1.83598283       6.43576014      -0.00000000      -0.00000000       0.00000000
16
Lattice="6.36835855 0.0 0.0 -3.18417927 5.51515969 0.0 0.0 0.0 10.32278974" Properties=species:S:1:pos:R:3:forces:R:3 energy=-30.68640556 stress="0.0014310723114004385 0.0 -0.0 -0.0 0.0014310719993249825 -0.0 -0.0 -0.0 0.0027135445141055455" e_per_atom_relaxed=-1.930364705 mp_id=mp-1028232 energy_per_atom=-1.9299003475 ef_per_atom_relaxed=-1.930364705 corrected_total_energy=-30.87840556 ef_per_atom=-0.040455456979166624 task_id=mp-1028232 calc_id=0 ionic_step=0 pbc="T T T"
Mg      -1.59096450       4.59661233       1.29034872       0.00474201       0.00273780       0.00000000
Mg      -1.59504653       4.59425553       6.45174359      -0.01159171      -0.00669248       0.00000000
Mg       3.18418246       1.83708921       1.29034872       0.00000000      -0.00547560       0.00000000
Mg       3.18418249       1.84180275       6.45174359       0.00000000       0.01338495       0.00000000
Mg       1.59097088       4.59661233       1.29034872      -0.00474201       0.00273780       0.00000000
Mg       1.59505297       4.59425553       6.45174359       0.01159171      -0.00669248       0.00000000
Mg       1.59666804       0.91654994       3.85283304       0.01255451      -0.00724835      -0.12057360
Mg       1.59666804       0.91654994       9.05065414       0.01255451      -0.00724835       0.12057360
Mg      -0.00000318       3.68206533       3.85283304      -0.00000000       0.01449670      -0.12057360
Mg      -0.00000318       3.68206533       9.05065414      -0.00000000       0.01449670       0.12057360
Mg       4.77168414       0.91654994       3.85283304      -0.01255451      -0.00724835      -0.12057360
Mg       4.77168414       0.91654994       9.05065414      -0.01255451      -0.00724835       0.12057360
Mg       3.18417609       3.67677497       3.87246161      -0.00000000       0.00000000       0.01768847
Mg       3.18417609       3.67677497       9.03102556      -0.00000000       0.00000000      -0.01768847
Al       0.00000319       1.83838472       1.29034872       0.00000000       0.00000000       0.00000000
Sb       0.00000319       1.83838472       6.45174359       0.00000000       0.00000000       0.00000000
16
Lattice="6.34852692 0.0 0.0 -3.17426346 5.497985 -0.0 0.0 0.0 10.34278471" Properties=species:S:1:pos:R:3:forces:R:3 energy=-30.67820243 stress="-0.002216823640970707 -0.0 -0.0 -0.0 -0.002216823166616014 -0.0 0.0 -0.0 0.0011581756068026132" e_per_atom_relaxed=-1.930364705 mp_id=mp-1028232 energy_per_atom=-1.929387651875 ef_per_atom_relaxed=-1.930364705 corrected_total_energy=-30.87020243 ef_per_atom=-0.03994276135416651 task_id=mp-1028232 calc_id=1 ionic_step=3 pbc="T T T"
Mg      -1.58586688       4.58238076       1.29284809      -0.00262022      -0.00151279       0.00000000
Mg      -1.58952208       4.58027047       6.46424044      -0.00808296      -0.00466670       0.00000000
Mg       3.17426663       1.83120298       1.29284809      -0.00000000       0.00302557      -0.00000000
Mg       3.17426660       1.83542362       6.46424044      -0.00000000       0.00933339      -0.00000000
Mg       1.58587323       4.58238076       1.29284809       0.00262022      -0.00151279       0.00000000
Mg       1.58952836       4.58027047       6.46424044       0.00808296      -0.00466670       0.00000000
Mg       1.59039887       0.91444455       3.86824058       0.01947338      -0.01124296      -0.12196764
Mg       1.59039887       0.91444455       9.06024031       0.01947338      -0.01124296       0.12196764
Mg      -0.00000321       3.66910146       3.86824058      -0.00000000       0.02248592      -0.12196764
Mg      -0.00000321       3.66910146       9.06024031      -0.00000000       0.02248592       0.12196764
Mg       4.75812164       0.91444455       3.86824058      -0.01947338      -0.01124296      -0.12196764
Mg       4.75812164       0.91444455       9.06024031      -0.01947338      -0.01124296       0.12196764
Mg       3.17426029       3.66532517       3.87951018      -0.00000000       0.00000000       0.00683183
Mg       3.17426029       3.66532517       9.04897071      -0.00000000       0.00000000      -0.00683183
Al       0.00000317       1.83265983       1.29284809      -0.00000000       0.00000000       0.00000000
Sb       0.00000317       1.83265983       6.46424044      -0.00000000       0.00000000       0.00000000
16
Lattice="6.35220506 0.0 0.0 -3.17610253 5.50117036 -0.0 0.0 0.0 10.37297212" Properties=species:S:1:pos:R:3:forces:R:3 energy=-30.67265034 stress="-0.002951476821349958 -0.0 0.0 0.0 -0.002951476184716027 0.0 -0.0 0.0 0.0015993245043861273" e_per_atom_relaxed=-1.930364705 mp_id=mp-1028232 energy_per_atom=-1.92904064625 ef_per_atom_relaxed=-1.930364705 corrected_total_energy=-30.86465034 ef_per_atom=-0.03959575572916661 task_id=mp-1028232 calc_id=1 ionic_step=1 pbc="T T T"
Mg      -1.58703034       4.58489443       1.29662152      -0.00241503      -0.00139432       0.00000000
Mg      -1.58997884       4.58319204       6.48310758      -0.01076260      -0.00621379       0.00000000
Mg       3.17610567       1.83254640       1.29662152       0.00000000       0.00278864       0.00000000
Mg       3.17610574       1.83595108       6.48310758       0.00000000       0.01242757       0.00000000
Mg       1.58703663       4.58489443       1.29662152       0.00241503      -0.00139432       0.00000000
Mg       1.58998526       4.58319204       6.48310758       0.01076260      -0.00621379      -0.00000000
Mg       1.59068619       0.91534045       3.88154978       0.02580477      -0.01489839      -0.12537162
Mg       1.59068619       0.91534045       9.08466537       0.02580477      -0.01489839       0.12537162
Mg      -0.00000321       3.67049501       3.88154978       0.00000000       0.02979678      -0.12537162
Mg      -0.00000321       3.67049501       9.08466537       0.00000000       0.02979678       0.12537162
Mg       4.76151245       0.91534045       3.88154978      -0.02580477      -0.01489839      -0.12537162
Mg       4.76151245       0.91534045       9.08466537      -0.02580477      -0.01489839       0.12537162
Mg       3.17609935       3.66744874       3.89064397       0.00000000       0.00000000       0.00605636
Mg       3.17609935       3.66744874       9.07557118       0.00000000       0.00000000      -0.00605636
Al       0.00000318       1.83372162       1.29662152       0.00000000       0.00000000       0.00000000
Sb       0.00000318       1.83372162       6.48310758       0.00000000       0.00000000       0.00000000
16
Lattice="6.367546 0.0 0.0 -3.183773 5.514456 0.0 0.0 0.0 10.498879" Properties=species:S:1:pos:R:3:forces:R:3 energy=-30.62860024 stress="0.0021674600258902994 -0.0 -0.0 -0.0 0.002167459557777115 -0.0 -0.0 0.0 0.010788916256541596" e_per_atom_relaxed=-1.930364705 mp_id=mp-1028232 energy_per_atom=-1.926287515 ef_per_atom_relaxed=-1.930364705 corrected_total_energy=-30.82060024 ef_per_atom=-0.03684262447916663 task_id=mp-1028232 calc_id=1 ionic_step=0 pbc="T T T"
Mg      -1.59188332       4.59537816       1.31235988       0.02114794       0.01220977      -0.00000000
Mg      -1.59188332       4.59537816       6.56179938      -0.04011909      -0.02316277      -0.00000000
Mg       3.18377618       1.83815016       1.31235988      -0.00000000      -0.02441954      -0.00000000
Mg       3.18377618       1.83815016       6.56179938      -0.00000000       0.04632553      -0.00000000
Mg       1.59188968       4.59537816       1.31235988      -0.02114794       0.01220977      -0.00000000
Mg       1.59188968       4.59537816       6.56179938       0.04011909      -0.02316277      -0.00000000
Mg       1.59188332       0.91907784       3.93707962       0.05481659      -0.03164837      -0.17444477
Mg       1.59188332       0.91907784       9.18651913       0.05481659      -0.03164837       0.17444477
Mg      -0.00000318       3.67630584       3.93707962      -0.00000000       0.06329674      -0.17444477
Mg      -0.00000318       3.67630584       9.18651913      -0.00000000       0.06329674       0.17444477
Mg       4.77565632       0.91907784       3.93707962      -0.05481659      -0.03164837      -0.17444477
Mg       4.77565632       0.91907784       9.18651913      -0.05481659      -0.03164837       0.17444477
Mg       3.18376982       3.67630584       3.93707962      -0.00000000       0.00000000       0.01635337
Mg       3.18376982       3.67630584       9.18651913      -0.00000000       0.00000000      -0.01635337
Al       0.00000318       1.83815016       1.31235988      -0.00000000       0.00000000      -0.00000000
Sb       0.00000318       1.83815016       6.56179938      -0.00000000       0.00000000      -0.00000000
16
Lattice="6.35766835 0.0 0.0 -3.17883468 5.50590189 0.0 0.0 -0.0 10.28347915" Properties=species:S:1:pos:R:3:forces:R:3:magmoms:R:1 energy=-29.4303123 stress="0.00029490528314167746 -2.4966036503533032e-11 0.0 -2.4966036503533032e-11 0.00029490523945111354 -0.0 0.0 0.0 0.0002803612936105078" bandgap=0.0 e_per_atom_relaxed=-1.930364705 mp_id=mp-1028232 energy_per_atom=-1.85139451875 ef_per_atom_relaxed=-1.930364705 corrected_total_energy=-29.6223123 ef_per_atom=0.03805037177083338 task_id=mp-1262113 calc_id=0 ionic_step=1 pbc="T T T"
Mg      -1.58875326       4.58863141       1.28543489       0.02087662       0.01205312      -0.00000000      -0.00000000
Mg      -1.59324200       4.58603984       6.42717447       0.00776733       0.00448447       0.00000000      -0.00000000
Mg       3.17883719       1.83453546       1.28543489       0.00000000      -0.02410624       0.00000000       0.00000000
Mg       3.17883719       1.83971860       6.42717447       0.00000000      -0.00896894      -0.00000000       0.00000000
Mg       1.58875878       4.58863141       1.28543489      -0.02087662       0.01205312      -0.00000000      -0.00000000
Mg       1.59324751       4.58603984       6.42717447      -0.00776733       0.00448447      -0.00000000       0.00000000
Mg       1.59569008       0.91402855       3.82029584      -0.01244997       0.00718799      -0.01271399       0.00000000
Mg       1.59569008       0.91402855       9.03405309      -0.01244997       0.00718799       0.01271399       0.00000000
Mg      -0.00000037       3.67784484       3.82029584       0.00000000      -0.01437598      -0.01271399       0.00000000
Mg      -0.00000037       3.67784484       9.03405309       0.00000000      -0.01437598       0.01271399       0.00000000
Mg       4.76197804       0.91402855       3.82029584       0.01244996       0.00718799      -0.01271399      -0.00000000
Mg       4.76197804       0.91402855       9.03405309       0.01244996       0.00718799       0.01271399      -0.00000000
Mg       3.17883066       3.67060310       3.86043895      -0.00000000      -0.00000000      -0.00650808       0.00000000
Mg       3.17883066       3.67060310       8.99390999      -0.00000000      -0.00000000       0.00650808      -0.00000000
Al       0.00000301       1.83529879       1.28543489      -0.00000000      -0.00000000       0.00000000      -0.00000000
Sb       0.00000301       1.83529879       6.42717447      -0.00000000      -0.00000000      -0.00000000       0.00000000
16
Lattice="6.3575954 0.0 0.0 -3.1787982 5.50583872 0.0 0.0 0.0 10.2830052" Properties=species:S:1:pos:R:3:forces:R:3 energy=-29.42877749 stress="-1.0572835591335577e-05 0.0 -0.0 0.0 -1.0572835591335577e-05 0.0 -0.0 -0.0 -4.246813935284207e-05" e_per_atom_relaxed=-1.930364705 mp_id=mp-1028232 energy_per_atom=-1.8512985931250001 ef_per_atom_relaxed=-1.930364705 corrected_total_energy=-29.620777490000002 ef_per_atom=0.03814629739583332 task_id=mp-1262113 calc_id=0 ionic_step=0 pbc="T T T"
Mg      -1.58812689       4.58892987       1.28537565      -0.01260649      -0.00727836       0.00000000
Mg      -1.59319297       4.58600500       6.42687825      -0.00063786      -0.00036827      -0.00000000
Mg       3.17880071       1.83381219       1.28537565      -0.00000000       0.01455672       0.00000000
Mg       3.17880068       1.83966198       6.42687825      -0.00000000       0.00073654       0.00000000
Mg       1.58813241       4.58892987       1.28537565       0.01260649      -0.00727836       0.00000000
Mg       1.59319843       4.58600500       6.42687825       0.00063786      -0.00036827       0.00000000
Mg       1.59514107       0.91432446       3.82406834       0.01100074      -0.00635128      -0.08184797
Mg       1.59514107       0.91432446       9.02968816       0.01100074      -0.00635128       0.08184797
Mg      -0.00000037       3.67718985       3.82406834      -0.00000000       0.01270256      -0.08184797
Mg      -0.00000037       3.67718985       9.02968816      -0.00000000       0.01270256       0.08184797
Mg       4.76245410       0.91432446       3.82406834      -0.01100074      -0.00635128      -0.08184797
Mg       4.76245410       0.91432446       9.02968816      -0.01100074      -0.00635128       0.08184797
Mg       3.17879419       3.67056098       3.85987151      -0.00000000       0.00000000       0.00807327
Mg       3.17879419       3.67056098       8.99388499      -0.00000000       0.00000000      -0.00807327
Al       0.00000301       1.83527774       1.28537565       0.00000000       0.00000000       0.00000000
Sb       0.00000301       1.83527774       6.42687825       0.00000000       0.00000000      -0.00000000
